27
 energy: -41.867126924751 gnorm: 0.000802999303 xtb: 6.6.1 (unknown)
C           -1.08143761904134        0.03629357337041       -1.15058566666885
C            0.14115080808376       -0.49666355318285       -0.43255287875271
O            0.10631381231168       -0.97510116018293        0.68196423711906
N            1.28649876511874       -0.38450757246198       -1.13585255476275
H           -1.19333855388010       -0.45110395147391       -2.11639819758338
H           -1.96464935609878       -0.14933039620269       -0.54698001186804
H           -0.97526435056559        1.10764842929588       -1.30865884828161
H            3.22835013067139        0.60357451591870        2.27390130196830
H            1.30016550036625       -0.00013681543468       -2.06340091403248
C            3.51063069046268       -0.34567671134413        2.72289131321727
C            3.06016131147623       -1.49797223253833        1.83949825012128
O            3.60295938324983       -1.38139014989809        0.51093156560199
C            4.85655665344905       -1.78935616520849        0.33206695320022
O            5.57451641927358       -2.26080089185165        1.16572119606448
O            5.17017519103992       -1.60204555148459       -0.95421687648108
C            6.49795301336854       -1.96739590497503       -1.33933599030531
C            7.49772481307014       -0.86723182444881       -1.01451721186933
H            2.15175252278897       -0.71676735890251       -0.73471852095328
H            4.58949730787708       -0.37040530944381        2.85958975259201
H            3.03032467387627       -0.43153105762079        3.69294766457574
H            1.97697626202514       -1.48269890967433        1.69180676984900
H            3.37814995517586       -2.45402120810394        2.26433580278536
H            6.43582659711589       -2.13984861978875       -2.41541208191234
H            6.77475340941678       -2.89437882306985       -0.82726551273654
H            8.47990162893299       -1.14908998900322       -1.38259622933676
H            7.19574385558303        0.06625785367574       -1.48319433979329
H            7.55340717494157       -0.72252021572061        0.06143102818933
