21
 energy: -30.816188204009 gnorm: 0.000838402443 xtb: 6.6.1 (unknown)
C           -1.78523605096613       -0.67919750250374        0.07478793367692
C           -0.54770915696732        0.17269967053645        0.29417391443296
O           -0.56104579114764        1.22246004030218        0.90675975944783
N            0.55966278015601       -0.35118887424560       -0.26522353169926
C            1.84852952277266        0.28607204313958       -0.17508723241571
H           -2.00750177704964       -0.72759469447139       -0.98876852824222
H           -1.61146043113211       -1.68697893817774        0.44346088785972
H           -2.62700708018150       -0.23692664428203        0.59919072474799
H            0.50649062333202       -1.23833632824786       -0.74775940647982
H            2.56387730135385       -0.35939380477799        0.33789820321271
H            2.23345176379936        0.52193656615056       -1.16925521930359
H            1.72316049151804        1.20788493906029        0.39193648404633
C           -1.68702216736743       -4.31788084115605       -1.74065517138644
C           -0.19469808811188       -4.13993581617683       -1.58820143346741
O            0.35259119174681       -3.06353869069923       -1.47730634006383
N            0.50182006439116       -5.29663678296929       -1.58141863592670
H           -2.07502102308159       -4.91823806469530       -0.92105441237161
H           -2.17462474919193       -3.34815987402641       -1.73656422091763
H           -1.90535887930095       -4.82480545473430       -2.67760959447414
H            0.05462938046353       -6.18995888688869       -1.67920494697563
H            1.50337207496624       -5.26498206113881       -1.48739923369707
