16
 energy: -24.166109640159 gnorm: 0.000274298469 xtb: 6.6.1 (unknown)
C           -1.86786220153989       -0.17111591844929        0.15002350238997
C           -0.50323640670458        0.48511701700610        0.24386770818310
O           -0.32558827179835        1.61725936687970        0.64280761154696
N            0.50530838631553       -0.31158874545226       -0.16858529968739
C            1.87575567875077        0.14663059311758       -0.16450250861654
H           -2.12601713991250       -0.32689300734606       -0.89527901481191
H           -1.86005322228916       -1.13417687053870        0.65430840003432
H           -2.61035281237641        0.47567497370156        0.60764358650495
H            0.30912192662449       -1.24418834210892       -0.49338718261886
H            2.52428099172035       -0.65047658138364       -0.51643519595852
H            1.98508893987613        1.02029255971851       -0.81118449387092
H            2.17103274489936        0.44064568262138        0.84509429219521
C           -0.35090357802945       -4.33902675121227       -1.50581007555398
O           -0.08673060757034       -3.23779426985517       -1.12706026636262
H            0.40077225311835       -5.14194162122572       -1.56638602341702
H           -1.36511668108439       -4.63071808547282       -1.82171503995676
