33
 energy: -50.792913643976 gnorm: 0.000770255897 xtb: 6.6.1 (unknown)
C           -0.44330488584413        0.42843089761381        1.15937984154194
C            0.99095191185875       -0.03700311170269        0.99324215200960
O            1.65282532852293       -0.48606334819337        1.90679839179140
N            1.47450610118245        0.09942122582522       -0.25511970885483
H           -1.10571148245249       -0.21528465331862        0.58410130851291
H           -0.72162680811847        0.37901345832651        2.20747799436366
H           -0.55043538472391        1.45017421897659        0.80286901916813
H            2.40632093561763       -0.23241658446994       -0.48081376480257
H            0.89330183600736        0.42903853558116       -1.00440075996998
C            6.96731859826683       -4.57658504639786       -2.89207971290898
C            7.02046950489246       -4.61699809753924       -1.50774627920594
C            6.42109052596123       -3.62132073009582       -0.75839422563206
C            5.75152671526283       -2.57826713409070       -1.39540767306999
C            5.67989475461754       -2.55853205647388       -2.78686261638079
C            6.29536685945664       -3.54657099024620       -3.53115002996403
C            5.06291211862182       -1.51214657333793       -0.62630435033233
O            4.03621567656896       -1.00331591086075       -1.04588953570736
C            5.68572509959184       -1.09792744469478        0.64946624492569
C            4.87942270025735       -0.69478501826453        1.71352400935286
C            5.45774117859411       -0.28998980944383        2.90266135693022
C            6.83631576638874       -0.26035828094510        3.03488775270200
C            7.64284656491960       -0.63979488127283        1.97254825097134
C            7.07443473824890       -1.06314087775631        0.78651987755328
H            7.44462643302167       -5.35232417589872       -3.47284320574340
H            7.53165128203730       -5.42857488813851       -1.01095382465413
H            6.44998841055903       -3.66152073190434        0.32058024942903
H            5.14537716077478       -1.75251440109848       -3.26779749938986
H            6.24807060185383       -3.51839732922934       -4.60971879533930
H            3.80289555963760       -0.72147620331535        1.61987095878310
H            4.82412394471707        0.00660101493769        3.72444553945587
H            7.28578795504452        0.06177909132821        3.96297852467818
H            8.71834361065800       -0.60585902113054        2.07042888059483
H            7.70512668801524       -1.34249114276400       -0.04559837080889
