21
 energy: -33.605560503062 gnorm: 0.000679280707 xtb: 6.6.1 (unknown)
C            0.37838052304551       -0.69201122568785        0.70818478000287
C            1.78635894313802       -0.48831131574338        0.18514121401701
O            2.77621155229726       -0.87138059732430        0.77831305499298
N            1.85101473045558        0.16380122860776       -0.98882737331356
H           -0.18459712080913       -1.31558140442258        0.01686930911568
H            0.41741427953120       -1.17857915626898        1.67826093374076
H           -0.12528876502609        0.26714535111821        0.80502369476012
H            2.74977114334005        0.30259386939908       -1.43421159801163
H            1.02071286941405        0.44449585111672       -1.47839936592361
C            6.38960600856291       -1.83897736386935        0.68914116018446
C            5.82891552202274       -0.46324051371410        0.35035455956995
C            5.06207119032116       -0.71930144297477       -0.93145152124033
O            4.64689924427468        0.10461341083316       -1.70439602468314
O            4.88727527598633       -2.02575961408876       -1.11332753140392
C            5.36997473374843       -2.75610066956255        0.00837570223981
H            6.45079918091156       -2.02785322228392        1.75742008777058
H            7.37847824990511       -1.97239474412340        0.24698538760333
H            5.09152275763028       -0.14076181212408        1.08805234558516
H            6.57324224946060        0.31853465242697        0.22040611891045
H            5.78632166751935       -3.69585100189697       -0.35637348596238
H            4.51771576426810       -2.95388027942056        0.66675855202909
