29
 energy: -39.012194410784 gnorm: 0.000662787062 xtb: 6.6.1 (unknown)
C           -1.87742195921412       -0.18333434846501        0.14632144712053
C           -0.50862856757037        0.46613625243720        0.23962585309160
O           -0.32639346316531        1.59621642637266        0.64542042624914
N            0.49092683328525       -0.33554363152053       -0.17881176706227
C            1.86501012906043        0.10957646596872       -0.18249279567206
H           -2.14086089266503       -0.32534796390095       -0.89956583311664
H           -1.86794471697656       -1.15379125723170        0.63572467235073
H           -2.61561890624299        0.45910664286249        0.61666150883657
H            0.28246662023405       -1.26311734853067       -0.51418076675089
H            2.50237550661565       -0.69309179406700       -0.54258033128362
H            1.98005066390077        0.98506861226074       -0.82611053778132
H            2.17146536798321        0.39564159727746        0.82626915842231
C           -1.09625089266529       -6.83675242224635       -2.45271513758595
C           -0.61409096674935       -5.72593677903810       -3.37831879058884
C            0.44621505949100       -4.86582919393834       -2.68400133929817
C           -0.07509575266499       -4.33194048800929       -1.37490774736479
O           -0.05003425231934       -3.15821187349091       -1.08873442097593
C           -0.62947051272960       -5.38724411680617       -0.45334988460751
C           -1.67637899000791       -6.24087670087993       -1.17539392369091
H           -0.26198572924990       -7.49719505349649       -2.20479489860496
H           -1.85673716176448       -7.43383492948595       -2.95902176850171
H           -0.19310241949638       -6.14906368757480       -4.29202901298656
H           -1.45929781770779       -5.09454778167553       -3.66090474134323
H            1.32562860963558       -5.47947018282117       -2.47203329913584
H            0.75019789471954       -4.03402741056090       -3.32161765326897
H            0.19875655751685       -6.02575395981889       -0.13523353413535
H           -1.05793403805797       -4.91155453565964        0.43034546390997
H           -2.01776671070976       -7.03371573724864       -0.50758258882964
H           -2.53867949248521       -5.61786480071242       -1.42278775739573
