15
 energy: -27.296342993456 gnorm: 0.000340770637 xtb: 6.6.1 (unknown)
C           -1.85893740698934       -0.16528862310754        0.15561895526918
C           -0.49777966217806        0.49731673072092        0.25220383496274
O           -0.32368890968823        1.62635281915949        0.65766965284733
N            0.51752600861675       -0.29167022937268       -0.16429691090965
C            1.88456900371561        0.17833703955512       -0.15609469056169
H           -2.10892612764482       -0.34080903806911       -0.88870416958946
H           -1.85480671893049       -1.11808015614602        0.67966317746742
H           -2.60670062083319        0.48788190812913        0.59522054487429
H            0.32834334214787       -1.22107757674421       -0.49888958307454
H            2.54346945200344       -0.61359380190976       -0.50053452878215
H            1.98893696173652        1.05009028697615       -0.80593883431924
H            2.17023792354831        0.47957729268688        0.85386695842701
C           -0.38271594589964       -4.39591126771312       -1.52657456393344
O           -0.14985156640220       -3.33408780584742       -1.16482366803238
O           -0.61377573320248       -5.45353757831781       -1.88748617464528
