22
 energy: -37.682603246111 gnorm: 0.000711323874 xtb: 6.6.1 (unknown)
C           -1.37193517213953        0.01715329658038        0.51246058362086
C           -0.06296892519640        0.73427941928113        0.24307482457911
O            0.03410958382923        1.94391143136587        0.17538424971613
N            0.98472273082200       -0.10309065214730        0.10160393315123
C            2.32379394518292        0.36773283329375       -0.14666029087979
H           -1.55707171069590       -0.73654891852223       -0.24881870851846
H           -1.32132656519693       -0.47600869305078        1.48101314132805
H           -2.18286182504970        0.73948285493223        0.52080359370216
H            0.83604212579172       -1.10210551521904        0.12432649828687
H            2.69676545717254       -0.00608017591201       -1.10266181428439
H            2.29008791170146        1.45650538805811       -0.17201208035520
H            2.99950108246096        0.04422341728934        0.64816169519741
C           -1.59417649121023       -5.19653898750222       -2.15161606269768
C           -2.50995833413779       -3.97065875847063       -1.95933270365449
O           -1.70603127019210       -3.06439756850012       -1.22640986072733
C           -0.50762848254519       -3.60637794701952       -0.96211336031725
O            0.34979924759385       -3.05529009209106       -0.35150479280914
O           -0.40456533312500       -4.83736071623104       -1.47237585251985
H           -1.99707236454423       -6.10526440458640       -1.69783708526589
H           -1.35442850214598       -5.38788008245902       -3.20102012646529
H           -3.40558581332667       -4.19605739930497       -1.37408107185864
H           -2.79811129504314       -3.50052872980377       -2.90248470923958
